# vtk DataFile Version 2.0
Really cool data
ASCII
DATASET POLYDATA
POINTS 1301 float
0.0 0.3 0.0
0.25 0.3 0.0
0.3 0.3 0.0
0.3292893218813453 0.2292893218813453 0.0
0.4 0.2 0.0
0.4707106781186548 0.2292893218813453 0.0
0.5 0.3 0.0
0.55 0.3 0.0
0.8 0.3 0.0
0.0 0.15 0.0
0.25 0.15 0.0
0.4 0.15 0.0
0.55 0.15 0.0
0.8 0.15 0.0
0.0 0.0 0.0
0.25 0.0 0.0
0.3 0.0 0.0
0.3292893218813453 0.07071067811865475 0.0
0.4 0.1 0.0
0.4707106781186548 0.07071067811865475 0.0
0.5 0.0 0.0
0.55 0.0 0.0
0.8 0.0 0.0
0.0250000000294038 0.3 0.0
0.0500000000626081 0.3 0.0
0.07500000013199765 0.3 0.0
0.100000000200574 0.3 0.0
0.1250000002615611 0.3000000000000001 0.0
0.1500000001572071 0.3 0.0
0.1750000000273745 0.3 0.0
0.199999999931152 0.3 0.0
0.2249999999303394 0.3 0.0
0.2549999999902422 0.3000000000000001 0.0
0.2599999999653055 0.3 0.0
0.2649999999967474 0.3 0.0
0.2700000000065052 0.3 0.0
0.275000000005421 0.3 0.0
0.2799999999230216 0.3 0.0
0.2849999998579695 0.3 0.0
0.2899999999241059 0.3000000000000001 0.0
0.294999999929527 0.3000000000000001 0.0
0.5050000000173471 0.3 0.0
0.5100000000867362 0.3 0.0
0.5150000000737257 0.3 0.0
0.5199999999934948 0.3 0.0
0.524999999989158 0.3 0.0
0.529999999934948 0.3 0.0
0.5349999996920867 0.3 0.0
0.5399999996443816 0.3 0.0
0.5449999996942549 0.3 0.0
0.5749999997831596 0.3000000000000001 0.0
0.5999999997224443 0.3 0.0
0.624999999861222 0.3 0.0
0.6499999998742324 0.3 0.0
0.6750000000216837 0.3 0.0
0.6999999998221905 0.3 0.0
0.7249999994492252 0.3 0.0
0.7499999994622356 0.3 0.0
0.7749999996270344 0.3 0.0
0.8 0.285000000069389 0.0
0.8000000000000002 0.2700000000151789 0.0
0.8 0.2549999999024218 0.0
0.8 0.2399999998796536 0.0
0.8 0.2249999998427907 0.0
0.8 0.2099999998384539 0.0
0.8 0.194999999823275 0.0
0.8 0.1799999998937482 0.0
0.8000000000000002 0.1649999999501267 0.0
0.8 0.1349999999298352 0.0
0.7999999999999999 0.1199999998921964 0.0
0.8 0.104999999835042 0.0
0.8 0.08999999981366628 0.0
0.8 0.07499999977656963 0.0
0.8 0.0599999998140119 0.0
0.8000000000000002 0.04499999985768831 0.0
0.8 0.02999999990854753 0.0
0.8 0.01499999996536989 0.0
0.774999999908927 0.0 0.0
0.7499999998265278 0.0 0.0
0.7249999996443817 0.0 0.0
0.6999999996010137 0.0 0.0
0.6749999995880032 0.0 0.0
0.649999999548972 0.0 0.0
0.6249999993668258 0.0 0.0
0.5999999994405517 0.0 0.0
0.5749999997050971 0.0 0.0
0.5449999998574275 0.0 0.0
0.5399999997126864 0.0 0.0
0.534999999544093 0.0 0.0
0.5299999994839197 0.0 0.0
0.5249999995473456 0.0 0.0
0.5199999994709095 0.0 0.0
0.5149999993630312 0.0 0.0
0.5099999994177835 0.0 0.0
0.5049999997565966 0.0 0.0
0.2949999999701845 0.0 0.0
0.2899999999078429 0.0 0.0
0.2849999998650168 0.0 0.0
0.2799999999045903 0.0 0.0
0.2749999998617643 0.0 0.0
0.2699999999447057 0.0 0.0
0.2649999999333217 0.0 0.0
0.2599999998579695 0.0 0.0
0.2549999998867009 0.0 0.0
0.2249999999975605 0.0 0.0
0.1999999999181427 0.0 0.0
0.1749999998148724 0.0 0.0
0.1499999997300336 0.0 0.0
0.124999999689647 0.0 0.0
0.09999999975984916 0.0 0.0
0.07499999980077779 0.0 0.0
0.04999999989157979 0.0 0.0
0.02499999996503452 0.0 0.0
0.0 0.01500000001712896 0.0
0.0 0.03000000003587075 0.0
0.0 0.04500000007013021 0.0
0.0 0.06000000011590929 0.0
0.0 0.07500000015464106 0.0
0.0 0.09000000006841857 0.0
0.0 0.1049999999865328 0.0
0.0 0.1199999999539783 0.0
0.0 0.1349999999572025 0.0
0.0 0.1650000000130105 0.0
0.0 0.1800000000704731 0.0
0.0 0.1950000000791468 0.0
0.0 0.2100000000867362 0.0
0.0 0.2250000001572093 0.0
0.0 0.2400000000140946 0.0
0.0 0.254999999887243 0.0
0.0 0.2699999998026753 0.0
0.0 0.2849999998980851 0.0
0.0250000000294038 0.15 0.0
0.05000000006260809 0.15 0.0
0.07500000013199762 0.15 0.0
0.100000000200574 0.15 0.0
0.1250000002615611 0.15 0.0
0.1500000001572071 0.15 0.0
0.1750000000273745 0.15 0.0
0.199999999931152 0.15 0.0
0.2249999999303394 0.15 0.0
0.25 0.1650000000130105 0.0
0.25 0.1800000000704731 0.0
0.25 0.1950000000791468 0.0
0.25 0.2100000000867362 0.0
0.25 0.2250000001572093 0.0
0.25 0.2400000000140946 0.0
0.2499999999999999 0.254999999887243 0.0
0.25 0.2699999998026753 0.0
0.25 0.2849999998980851 0.0
0.25 0.1349999999298352 0.0
0.25 0.1199999998921964 0.0
0.25 0.104999999835042 0.0
0.25 0.08999999981366628 0.0
0.25 0.07499999977656963 0.0
0.25 0.05999999981401186 0.0
0.25 0.04499999985768827 0.0
0.25 0.02999999990854752 0.0
0.2500000000000001 0.0149999999653699 0.0
0.265 0.15 0.0
0.280000000080231 0.15 0.0
0.2950000000715573 0.15 0.0
0.3100000000867361 0.15 0.0
0.3250000000867362 0.15 0.0
0.3399999999566319 0.15 0.0
0.3549999997202758 0.15 0.0
0.3699999997137706 0.15 0.0
0.3849999998091804 0.15 0.0
0.4000000000000001 0.154999999994579 0.0
0.4 0.1600000000119262 0.0
0.4 0.1649999999794002 0.0
0.4 0.1699999999750634 0.0
0.4 0.1749999999674739 0.0
0.4 0.1799999999110954 0.0
0.4 0.1849999998525485 0.0
0.4000000000000001 0.1899999998514643 0.0
0.4000000000000001 0.1949999999382005 0.0
0.4 0.1449999999522951 0.0
0.4 0.1399999999544635 0.0
0.4 0.1349999999490425 0.0
0.4 0.1299999999132638 0.0
0.4 0.1249999999349478 0.0
0.4 0.1199999999273585 0.0
0.4 0.1149999999078428 0.0
0.4000000000000001 0.1099999999170585 0.0
0.4000000000000001 0.1049999999701845 0.0
0.4149999999522951 0.15 0.0
0.4299999998677274 0.15 0.0
0.4449999997506335 0.15 0.0
0.4599999997896648 0.15 0.0
0.4749999998156856 0.15 0.0
0.4899999998265276 0.15 0.0
0.504999999709434 0.15 0.0
0.5199999995966769 0.15 0.0
0.5349999997788227 0.15 0.0
0.5500000000000002 0.1650000000130105 0.0
0.55 0.1800000000704732 0.0
0.55 0.1950000000791468 0.0
0.55 0.2100000000867362 0.0
0.5499999999999999 0.2250000001572093 0.0
0.5500000000000002 0.2400000000140947 0.0
0.55 0.254999999887243 0.0
0.5499999999999999 0.2699999998026753 0.0
0.55 0.2849999998980851 0.0
0.55 0.1349999999298352 0.0
0.55 0.1199999998921964 0.0
0.5500000000000002 0.104999999835042 0.0
0.55 0.08999999981366628 0.0
0.55 0.07499999977656963 0.0
0.55 0.05999999981401186 0.0
0.5500000000000002 0.04499999985768827 0.0
0.5500000000000002 0.02999999990854749 0.0
0.55 0.01499999996536984 0.0
0.5749999997831596 0.15 0.0
0.5999999997224443 0.15 0.0
0.624999999861222 0.15 0.0
0.6499999998742324 0.15 0.0
0.6750000000216837 0.15 0.0
0.6999999998221905 0.15 0.0
0.7249999994492252 0.15 0.0
0.7499999994622356 0.15 0.0
0.7749999996270344 0.15 0.0
0.3213603896579742 0.2213603896579742 0.0
0.3134314574779712 0.2134314574779712 0.0
0.3055025251581061 0.2055025251581061 0.0
0.2975735929325666 0.1975735929325666 0.0
0.2896446606940167 0.1896446606940166 0.0
0.2817157285557554 0.1817157285557555 0.0
0.2737867963144949 0.173786796314495 0.0
0.2658578641859917 0.1658578641859916 0.0
0.2579289320862196 0.1579289320862196 0.0
0.4786396103138367 0.2213603896861635 0.0
0.4865685424428822 0.2134314575571179 0.0
0.4944974746196325 0.2055025253803675 0.0
0.5024264067887936 0.1975735932112066 0.0
0.5103553390403538 0.1896446609596462 0.0
0.5182842711807836 0.1817157288192166 0.0
0.526213203288687 0.173786796711313 0.0
0.5341421354497164 0.1658578645502835 0.0
0.5420710676860981 0.157928932313902 0.0
0.2579289321976213 0.1420710678023787 0.0
0.2658578643610903 0.1341421356389098 0.0
0.2737867965939481 0.1262132034060519 0.0
0.2817157287915694 0.1182842712084306 0.0
0.2896446610165668 0.1103553389834332 0.0
0.2975735932179828 0.1024264067820172 0.0
0.3055025253353731 0.0944974746646269 0.0
0.3134314574985711 0.08656854250142904 0.0
0.3213603896154192 0.07863961038458078 0.0
0.5420710676332432 0.1420710676332432 0.0
0.5341421353212387 0.1341421353212386 0.0
0.5262132030710335 0.1262132030710335 0.0
0.5182842709655694 0.1182842709655694 0.0
0.5103553387774348 0.1103553387774348 0.0
0.5024264065890292 0.1024264065890293 0.0
0.4944974743643029 0.0944974743643029 0.0
0.4865685422314628 0.08656854223146268 0.0
0.4786396101135303 0.07863961011353025 0.0
0.3003082666302579 0.2921540903818455 0.0
0.3012311659566557 0.284356553393887 0.0
0.302763007984725 0.2766554635123905 0.0
0.304894348397827 0.2690983004783541 0.0
0.307612046785099 0.2617316566760299 0.0
0.3108993476362106 0.2546009499180089 0.0
0.3147359836183916 0.2477501434406102 0.0
0.3190983006035471 0.2412214747142635 0.0
0.3239594034709594 0.2350551951307294 0.0
0.3350551951946832 0.2239594034163376 0.0
0.3412214748333925 0.2190983005169948 0.0
0.3477501435701946 0.2147359835389822 0.0
0.3546009500996956 0.2108993475436366 0.0
0.3617316568574108 0.2076120467099685 0.0
0.3690983005982693 0.2048943483588642 0.0
0.3766554636496813 0.2027630079517644 0.0
0.3843565535261021 0.2012311659357149 0.0
0.3921540904905712 0.200308266621701 0.0
0.4078459095892148 0.2003082666279803 0.0
0.4156434465738868 0.2012311659515515 0.0
0.4233445364425871 0.202763007973916 0.0
0.4309016994776395 0.2048943483835285 0.0
0.4382683432720575 0.207612046763596 0.0
0.4453990500060386 0.2108993475975108 0.0
0.4522498564679315 0.2147359835623458 0.0
0.458778525196556 0.2190983005387536 0.0
0.4649448048293845 0.2239594034368933 0.0
0.4760405965731337 0.2350551951823555 0.0
0.4809016994917518 0.241221474845431 0.0
0.485264016500685 0.2477501436349254 0.0
0.4891006524750709 0.2546009501364108 0.0
0.4923879532861348 0.2617316568480033 0.0
0.4951056516405342 0.2690983005964175 0.0
0.4972369920304678 0.2766554635756723 0.0
0.4987688340538681 0.2843565534603307 0.0
0.4996917333725366 0.2921540904173517 0.0
0.3003082666279074 0.007845909588288206 0.0
0.3012311659452878 0.01564344653433835 0.0
0.30276300797377 0.02334453644197878 0.0
0.3048943483904616 0.03090169949897729 0.0
0.3076120467854215 0.03826834332474885 0.0
0.3108993476228473 0.04539905005576411 0.0
0.3147359836157507 0.0522498565550802 0.0
0.319098300590594 0.0587785252679081 0.0
0.323959403459194 0.06494480485549523 0.0
0.3350551951445251 0.0760405965408234 0.0
0.3412214748081558 0.08090169946466962 0.0
0.3477501435947459 0.08526401647606285 0.0
0.354600950095419 0.0891006524541844 0.0
0.3617316568580445 0.09238795329029399 0.0
0.3690983007098159 0.09510565167737947 0.0
0.3766554637426742 0.09723699207056125 0.0
0.3843565535972764 0.09876883407555802 0.0
[...]
CELL_DATA 1200
SCALARS scalar float 1
LOOKUP_TABLE default
19609335.796784293 17068379.757381607 15589017.567277813 14980135.083300352 14452220.100966224 13754120.059429768 12685880.989188837 11088478.866956314 8840421.541586187 5985546.84865378 16236965.22576679 17049406.14090257 16263543.407342639 15580529.09386967 15013115.693353824 14359837.12592981 13475703.43934699 12240689.577164687 10549675.112737585 8317324.651160686 15033815.923656411 16162063.13360268 16369337.46813408 16038548.788836004 15637384.955449916 15174600.932591084 14580179.482868366 13774101.28583662 12653196.24720091 11034660.10369362 14467046.305302048 15591275.924655356 16232862.633892098 16358597.780371629 16262111.201634225 16089764.367290502 15853164.671022134 15513812.94962241 14979549.814805038 14049729.174235035 14186011.56425112 15269374.34446097 16122486.131122231 16603150.090914842 16852156.18880118 17018769.75315404 17169741.677258343 17305225.30031563 17361013.314771857 17182348.394186098 14051605.610672362 15108894.577331237 16082159.239024742 16824057.942165826 17388561.4107918 17893571.182708044 18424713.611396335 19011566.27060143 19623400.107794467 20163658.4291547 13995861.670376796 15044548.180969007 16097087.874706604 17029634.70052101 17854930.846861687 18660218.70237526 19531592.39630823 20515215.381268315 21605003.09309995 22742584.62414703 13980246.986359 15031102.536657877 16139450.826925924 17207368.946448255 18230829.570821796 19275466.632540178 20421622.277530633 21722279.699141614 23180084.18580113 24748721.72372735 13981302.303746257 15037981.827473156 16183403.273060441 17339083.423850257 18495482.90519437 19705468.92411998 21043336.023661 22564103.083897192 24271089.07096378 26097873.90433376 13985113.460230414 15046051.960765567 16210225.629991874 17409261.01378072 18632347.34423713 19926563.383302987 21362741.495550144 22995324.82406587 24832903.45192748 26816512.387352847 13985113.505024651 13981302.43802528 13980247.209734678 13995861.982082492 14051606.008954838 14186012.048594736 14467046.876811257 15033816.581609137 16236965.948710386 19609336.441671714 15046052.001902949 15037981.950351907 15031102.739478108 15044548.460133187 15108894.926168462 15269374.753781326 15591276.380389385 16162063.605763746 17049406.552077513 17068379.918947536 16210225.666982176 16183403.38280611 16139451.005371207 16097088.114322381 16082159.52761263 16122486.45047705 16232862.958314983 16369337.758441525 16263543.608317353 15589017.666515607 17409261.048088096 17339083.525147606 17207369.109228346 17029634.915074915 16824058.194331005 16603150.358379005 16358598.03482755 16038549.000659844 15580529.244506136 14980135.170766521 18632347.379109684 18495483.008209515 18230829.736097123 17854931.064335477 17388561.666859876 16852156.45943914 16262111.457666406 15637385.172550654 15013115.855236048 14452220.200460687 19926563.422778968 19705469.04122599 19275466.82156239 18660218.953668088 17893571.483856466 17018770.07810398 16089764.682881344 15174601.210105652 14359837.340438921 13754120.187392466 21362741.543527108 21043336.166644935 20421622.51007055 19531592.709299374 18424713.993626673 17169742.10000019 15853165.094478585 14580179.868192663 13475703.742952773 12685881.156702532 22995324.88327311 22564103.26106443 21722279.989223905 20515215.77603065 19011566.76094111 17305225.855887853 15513813.524344007 13774101.828168202 12240690.015410816 11088479.092772651 24832903.523948647 24271089.287197784 23180084.541360985 21605003.582104925 19623400.72561592 17361014.032556713 14979550.583825305 12653197.006358901 10549675.757265901 8840421.869792832 26816512.475115422 26097874.15993326 24748722.14751453 22742585.21443862 20163659.190996684 17182349.306420945 14049730.192839868 11034661.164963229 8317325.622518687 5985547.388288315 108517.80085241882 202668.85243190697 237512.58857380616 158935.29759957487 430221.11733790877 936478.1620459838 1552936.2824765388 2238431.4240906187 2970199.3208495434 3753468.21628321 264656.30460272415 342985.0707558701 801629.6634139256 1407704.698058243 2165706.046400158 3015858.1327939946 3910514.8657065523 4819879.669711597 5726622.432735006 6615234.11696637 155586.42243218663 982641.1683019266 1786057.7768111152 2784995.335783233 3933008.0253273547 5139029.189925454 6339101.42971431 7494548.453893294 8580805.672812868 9579667.989864135 1051992.667280426 2030011.2057856508 3233891.3199041216 4706771.87629939 6282778.032755342 7840146.980413493 9312189.723289073 10666387.541340005 11890441.767072026 12987135.35771131 2556503.5440056394 3552105.7083470738 5310767.056951993 7330514.656502369 9322241.034462826 11166036.9622306 12818698.720406655 14271718.610177463 15532806.443379065 16614315.565002859 4387415.894863905 5602467.082829044 8053302.973582898 10588724.400237095 12886515.24678699 14878648.375300096 16568699.702283591 17982622.64026579 19150963.61146009 20103172.32155778 6411135.8642943725 8225480.571097854 11362887.674755026 14253806.98102592 16669822.53199645 18630425.69342368 20198968.77051552 21438153.60266713 22401044.10499649 23130733.009477086 8663897.14810842 11395584.973622825 15027342.362339497 18030065.080420036 20344798.217720445 22098773.098764516 23411916.662226368 24375284.087779347 25054893.196087107 25498780.405036077 11319033.923113625 14979486.034711398 18799620.990510013 21630032.12572699 23643944.094031665 25059964.001337383 26032431.09900913 26661913.29373679 27013509.87132692 27128089.440988507 14484452.983469909 18850475.676824406 22423686.02454976 24824619.073762443 26400935.029228434 27409298.433157288 28002086.60707852 28267393.420325987 28257246.494010877 27991200.927406456 39198005.82832991 38401643.68462248 37083470.31236505 35616310.12046542 34265538.83139956 33105305.301972724 32065735.551860016 31035880.765234046 29936811.09992143 28720708.018920407 39540984.419167906 38759240.06433184 37447137.6832881 35956535.244141825 34557158.974568866 33350985.75057067 32298140.051131073 31301087.109682277 30279110.658803027 29209153.81616994 40242143.885975905 39426270.81967513 38041107.09572782 36439466.294765666 34908216.02597115 33579933.91322627 32444227.17899683 31417605.645521723 30416082.10707147 29397273.103188414 41336760.34018447 40447178.88646835 38919933.28774566 37122691.30906661 35370373.59902344 33831845.142663985 32529189.962414034 31395306.424014617 30342766.125118934 29309978.05294612 42881267.482779115 41884265.29693566 40151972.094133675 38074647.15120398 36003757.392908216 34151410.55064807 32578144.96890312 31239093.70463818 30047538.33974472 28925262.630838957 44957833.62805116 43824188.16534697 41827728.028625794 39382982.955789834 36883433.7783477 34592094.07572359 32616239.300829835 30942955.97455672 29495463.690384682 28184092.515250377 47681172.11113448 46386674.973390825 44071097.11849463 41167144.847871855 38110839.71339496 35223762.11232565 32671124.547570422 30484441.648639806 28612954.685541213 26968108.819205042 51208128.15101764 49736420.623373635 47055149.78949069 43597679.62963118 39833575.8696584 36148172.4481559 32780201.916037858 29823033.789005756 27270543.058095645 25064558.706010792 55750793.996984005 54099339.95552318 51024633.48685646 46926479.33582678 42280053.47561956 37530408.08148125 33011171.129335225 28911152.655033577 25293947.38020577 22160539.431912486 61594102.62206113 59784530.257298864 56327928.82961341 51534419.6003531 45821898.13051489 39662635.411231756 33517381.340348005 27767519.00508766 22659055.94295145 18326963.159786414 18326960.640826635 22659053.628566347 27767516.888757363 33517379.435515624 39662633.73038963 45821896.61372645 51534418.22409527 56327927.65218678 59784529.280047424 61594101.86476123 22160537.777155202 25293945.80132975 28911151.12852683 33011169.67281967 37530406.71729687 42280052.17280586 46926478.11910781 51024632.408758685 54099339.04325271 55750793.259113126 25064557.545901377 27270541.922510713 29823032.65412896 32780200.787755713 36148171.34315363 39833574.77725538 43597678.58020451 47055148.84013188 49736419.80909893 51208127.48899073 26968107.958404727 28612953.828660082 30484440.779294405 32671123.66665932 35223761.2306915 38110838.82876521 41167143.9904638 44071096.34139272 46386674.315313734 47681171.593070574 28184091.851254422 29495463.026784055 30942955.299847152 32616238.614584055 34592093.38398729 36883433.081067994 39382982.278694905 41827727.41727338 43824187.65713824 44957833.244757846 28925262.1131011 30047537.824258093 31239093.183537133 32578144.441045035 34151410.01826192 36003756.85491956 38074646.626462005 40151971.6184718 41884264.903191306 42881267.19154963 29309977.66548556 30342765.742483318 31395306.039083704 32529189.573504083 33831844.749781266 35370373.200346984 37122690.9176 38919932.93026525 40447178.59014825 41336760.123238474 29397272.83000098 30416081.83795698 31417605.377716426 32444226.910128415 33579933.642262325 34908215.75112206 36439466.02457563 38041106.84867385 39426270.61624403 40242143.740586445 29209153.65132839 30279110.498480402 31301086.951271947 32298139.89364283 33350985.592220306 34557158.81374921 35956535.08553661 37447137.53745812 38759239.94429065 39540984.33444087 28720707.96092995 29936811.046457212 31035880.712614 32065735.499887146 33105305.249613054 34265538.77789556 35616310.067365065 37083470.26303546 38401643.64381905 39198005.79974743 108522.4398505492 264657.5814296188 155581.06933002762 1051989.7559525713 2556500.9415766634 4387413.235856877 6411133.073035173 8663894.273900323 11319031.089378586 14484450.282535983 202671.5390239413 342983.456423484 982637.7680601295 2030007.6283764807 3552102.3250459367 5602464.008184017 8225477.846156214 11395582.591476554 14979483.964243224 18850473.868101817 237513.07339685864 801627.3555027879 1786054.6457962107 3233888.1385578946 5310764.175930847 8053300.491064297 11362885.57630085 15027340.589789128 18799619.49314838 22423684.75242434 158932.37411670567 1407702.419618648 2784992.6473178407 4706769.238169703 7330512.311271497 10588722.409495074 14253805.322463697 18030063.69855808 21630030.98007795 24824618.126449853 430218.6755534599 2165703.9739012355 3933005.718048662 6282775.807044732 9322239.063953403 12886513.57917647 16669821.152288487 20344797.08125466 23643943.170578852 26400934.286468856 936476.4724561444 3015856.2759754444 5139027.180202873 7840145.059861075 11166035.261819892 14878646.936261982 18630424.50842084 22098772.132690493 25059963.23107952 27409297.835811928 1552934.9810012274 3910513.204904584 6339099.65951573 9312188.044872126 12818697.237308925 16568698.451306654 20198967.74946213 23411915.842942838 26032430.46399715 28002086.138866995 2238430.362466062 4819878.165536735 7494546.861076712 10666386.040302897 14271717.287690435 17982621.531742938 21438152.709820934 24375283.387748506 26661912.772551686 28267393.066936977 2970198.4354172572 5726621.058710258 8580804.220746981 11890440.406415043 15532805.248651037 19150962.618442636 22401043.31816151 25054892.59821636 27013509.454198305 28257246.248006284 3753467.4909964954 6615232.853933212 9579666.6648668 12987134.123018986 16614314.485934343 20103171.434674308 23130732.320649352 25498779.904015943 27128089.123595525 27991200.781418018 18437335.483022332 22749114.288481604 27838235.815452967 33569505.0344114 39696885.68199855 45839961.41485828 51539793.23196669 56325753.608895615 59780352.55316496 61592179.11950365 22167617.586887896 25299567.829539534 28916707.02660609 33017314.513710752 37536818.66067554 42285723.72926162 46930373.172663115 51026452.750888795 54099733.95466996 55750767.378021315 25002452.416929964 27214108.93688956 29776885.641676355 32746548.38356233 36126878.10678571 39822573.37615039 43593758.14362283 47054935.02451959 49737277.738881595 51208564.49269415 26852524.63080605 28508280.856147237 30396278.171236847 32603067.52531098 35176490.43869454 38082167.96938076 41152799.500737704 44065882.847178236 46385771.547962084 47681259.97089347 28019807.63301411 29348728.14437783 30818440.3935968 32517716.731836867 34520822.39415821 36837424.21443944 39357434.717202276 41816262.94726003 43820453.22477313 44957159.56092089 28713190.611291632 29861207.161029078 31081344.03472498 32451906.046884827 34057953.844602264 35941255.508576535 38038004.53328393 40133945.975063525 41877317.595460705 42879667.14916822 29050195.34816742 30117985.074251004 31206202.49344815 32377237.82491217 33717808.8775061 35292411.90339856 37075495.91547519 38895551.2914945 40437047.0769569 41334224.20596219 29090328.594366435 30153944.402601846 31198707.158627518 32268253.55727803 33446796.26680331 34815898.69984663 36382479.32881767 38010865.229136206 39413233.81900574 40238761.26092309 28856454.14412727 29981322.951893814 31054255.009403493 32099905.178371686 33200228.90385438 34451636.5017007 35890638.90076647 37411710.36673068 38743745.23123179 39536914.635875024 28323361.059806187 29606248.28330175 30763719.49123094 31847388.3350957 32938569.84254113 34148022.69867947 35542457.582321286 37043656.7400599 38384276.27406755 39193469.83712719 27570080.93296116 26746806.228255313 25184340.132675674 22906597.180217855 19984740.28162555 16605421.44590419 13078045.412505219 9748270.508066453 6831378.168088852 3978910.225038391 27888568.965900578 26689168.677108873 24797369.069004864 22228661.788000807 19074221.437872086 15551238.361475663 11991331.520152565 8741398.057389326 5917549.364843059 3158091.3447789424 27952858.814700276 26393985.05068982 24172234.457726553 21313859.615727127 17943256.072895303 14313038.997179924 10773344.48062688 7644213.760510186 4985820.938961563 2391736.5589674804 27742262.810911883 25819367.968293626 23260285.945717163 20118764.554922204 16562197.106877398 12878349.44951362 9421171.729934255 6475331.827474025 4051432.848561177 1673394.8147144995 27203431.68783232 24899453.182938363 21995141.163693294 18590124.802838672 14900350.10306804 11239308.406915858 7947121.011022776 5259381.170388762 3131426.5372658167 1025692.0332297316 26247600.906036768 23533478.327386025 20285783.504157126 16665275.43469245 12931706.538555397 9404381.740171786 6383813.204236985 4035156.233507708 2255611.794525933 489116.5778457627 24723055.246276427 21568032.188076023 18013146.12484021 14281460.580087138 10653089.831395626 7417220.074460129 4798603.215544176 2867404.4577800976 1472285.3528906687 171336.6982927882 22376861.059255667 18788179.089769866 15053207.945861764 11421919.182431847 8135043.202035415 5400289.782813135 3315898.861970769 1849791.268902597 843410.8935114946 229099.1807890999 18873409.370642576 15032906.69279983 11477067.63032347 8327310.154467275 5711559.982638902 3652832.5364080006 2109021.638010794 1033759.0058015039 368809.97799810214 202476.74249459626 14619992.701553313 11481977.614559563 8847696.61104143 6601090.738473736 4563765.140719618 2699131.815823061 1146125.7694306874 177334.726996009 252467.88118051153 107719.5790661222 23398691.208982706 20642640.857440237 19070237.39402033 17847705.387569763 16726678.948790692 15485025.692991091 13953117.275878126 11975871.635291854 9425310.604608152 6335174.377965347 17512634.399843737 17765923.56498654 17860193.469809774 17276337.848079972 16505635.171492307 15570010.604836727 14402016.549895607 12914617.061047684 11013619.44109511 8615615.738674745 16959251.06913692 16351009.800909491 16791922.373024225 16773238.075908953 16412739.964483654 15862243.85037298 15135895.006389502 14194950.05777107 12955894.602962637 11243616.154857244 16824152.6492489 16079467.495259624 16247794.026994843 16464929.67900823 16462756.71985477 16308901.076036656 16048229.417880101 15670060.170761714 15098765.433938814 14141463.052890431 16811728.02557465 16145487.754030269 16131161.181576913 16393851.150307713 16648182.139476113 16855643.83324036 17042730.9639112 17208358.75341203 17292123.602865856 17141245.376164325 16837802.32093032 16302602.578876762 16226190.350328423 16502947.353234002 16933556.675435744 17443637.591457333 18030545.142426375 18689973.733644422 19377160.58478988 19987873.84887525 16877850.808467004 16463908.086719362 16398848.391502073 16701203.026789801 17261352.075485516 18011017.572100453 18930800.127761547 20008002.139263786 21204504.7817718 22443506.638295997 16918963.825554766 16597937.557900487 16573173.678595204 16911774.098924443 17569356.43235466 18497919.472348467 19673047.087499764 21074172.256604794 22657427.411272734 24348566.82524247 16951892.542213745 16691973.123616874 16707355.120877197 17080116.13141348 17805141.677271184 18853289.190634333 20200711.425377347 21821950.459858645 23664414.394211836 25626431.49977419 16970084.815421388 16740214.629706495 16779263.07397634 17172338.78614903 17932261.551744625 19040464.905508626 20474633.05875806 22206247.675071582 24183642.379281145 26309713.794345718 16970084.780556444 16951892.470770147 16918963.76860779 16877850.788260363 16837802.342592817 16811728.094615407 16824152.768643454 16959251.21460391 17512634.441969916 23398690.958486315 16740214.599906862 16691973.050780816 16597937.47559919 16463908.021293856 16302602.542016303 16145487.743938945 16079467.49224188 16351009.752098424 17765923.41134513 20642640.77497342 16779263.048502162 16707355.049752953 16573173.575196836 16398848.271567713 16226190.22480516 16131161.052371759 16247793.889665997 16791922.22713274 17860193.35682802 19070237.39747805 17172338.756692115 17080116.04554848 16911773.963521294 16701202.852723792 16502947.153412502 16393850.938397419 16464929.473391498 16773237.904328432 17276337.745851684 17847705.3924792 17932261.51594041 17805141.5715626 17569356.261879224 17261351.850858193 16933556.413150415 16648181.861324765 16462756.455011897 16412739.748301227 16505635.040020566 16726678.93413002 19040464.862486254 18853289.062973645 18497919.264320508 18011017.294351097 17443637.262748085 16855643.479131132 16308900.73145471 15862243.560229922 15570010.41728543 15485025.650823977 20474633.008308962 20200711.27498293 19673046.839657243 18930799.791265085 18030544.735684298 17042730.512423493 16048228.960300421 15135894.600411348 14402016.266480016 13953117.185231332 22206247.61712267 21821950.28610732 21074171.966571476 20008001.73766326 18689973.23566078 17208358.180373956 15670059.561643029 14194949.484242672 12914616.628408356 11975871.467389958 24183642.313509237 23664414.19641158 22657427.07729938 21204504.309158858 19377159.98267113 17292122.883717038 15098764.632061232 12955893.801546825 11013618.787927937 9425310.322600227 26309713.719484776 25626431.28312382 24348566.45237329 22443506.094499446 19987873.131970096 17141244.480191804 14141461.999439845 11243615.035426265 8615614.741320707 6335173.87444884 107724.31594876568 202479.3552489987 229099.51725999796 171333.58769651194 489114.21277011203 1025690.3494804736 1673393.5067821539 2391735.5239753863 3158090.5136111923 3978909.5481902226 252469.10884032372 368808.1749104606 843408.446247646 1472282.9504690317 2255609.6216863045 3131424.586145962 4051431.109875971 4985819.401948245 5917547.986786604 6831376.88921188 177329.44727827268 1033755.5155184596 1849787.9841521503 2867401.600452092 4035153.779323716 5259379.022358405 6475329.937234297 7644212.097959468 8741396.565832492 9748269.132485721 1146122.921359664 2109017.9839951247 3315895.5060879914 4798600.3865022035 6383810.822372192 7947118.955499174 9421169.944090176 10773342.930261217 11991330.146636387 13078044.15960761 2699129.270318857 3652829.080036386 5400286.719877467 7417217.548714683 9404379.643032288 11239306.616667593 12878347.912102181 14313037.679792257 15551237.208806513 16605420.407041702 4563762.563337739 5711556.83218289 8135040.544660164 10653087.688774947 12931704.785188803 14900348.6242048 16562195.852105372 17943255.010256186 19074220.51914986 19984739.465157114 6601088.047618322 8327307.359068162 11421916.937708218 14281458.81171887 16665274.0103959 18590123.619158182 20118763.56397299 21313858.78720181 22228661.083400562 22906596.569145817 8847693.848676378 11477065.212346565 15053206.091502842 18013144.702652667 20285782.38242788 21995140.251084138 23260285.19724924